# OOMMF OVF 2.0
#
# Segment count: 1
#
# Begin: Segment
# Begin: Header
#
# Title: Oxs_TimeDriver::Magnetization
# Desc: Oxs vector field output
# Desc:  MIF source file: /atoz/Lorentz/Arthur/OOMMF/antiskyrm/Ku_initruns/5e-07_top_5e+06_5e+04_1e+02_Ms3.4e+05/5e-07_top_5e+06_5e+04_1e+02_Ms3.4e+05.mif
# Desc:  Iteration: 2140, State id: 15860
# Desc:  Stage: 7, Stage iteration: 218
# Desc:  Stage simulation time: 5e-11 s
# Desc:  Total simulation time: 3.51e-10 s
# meshunit: m
# meshtype: rectangular
# xbase: 2.5000000000000001e-09
# ybase: 2.5000000000000001e-09
# zbase: 2.5000000000000001e-09
# xnodes: 200
# ynodes: 200
# znodes: 2
# xstepsize: 5.0000000000000001e-09
# ystepsize: 5.0000000000000001e-09
# zstepsize: 5.0000000000000001e-09
# xmin: 0
# ymin: 0
# zmin: 0
# xmax: 9.9999999999999995e-07
# ymax: 9.9999999999999995e-07
# zmax: 1e-08
# valuedim: 3
# valuelabels: Magnetization_x Magnetization_y Magnetization_z
# valueunits: A/m A/m A/m
#
# End: Header
#
# Begin: Data Text
 -1142.60 -835.090 339997.
 -383.184 -619.506 -339999.
 -22.8065 -469.600 -340000.
 267.382 -460.300 -340000.
 962.460 -470.844 -339998.
 893.093 -38.9224 339999.
 282.082 171.047 340000.
 109.425 235.365 340000.
 49.2683 270.312 340000.
 2.08711 292.350 340000.
 -68.4183 277.210 340000.
 -212.445 184.063 340000.
 -567.436 -61.3827 340000.
 -6.85415 -329.090 -340000.
 734.402 -410.438 -339999.
 502.328 -9.92805 340000.
 604.601 132.652 339999.
 1797.84 118.261 -339995.
 956.437 217.158 -339999.
 -18.8682 -32.1964 -340000.
 42.4354 -165.494 -340000.
 335.065 -118.281 -340000.
 669.242 70.6022 -339999.
 442.360 129.129 -340000.
 -717.144 258.381 -339999.
 -750.114 -36.0368 339999.
 -1226.69 -251.088 339998.
 -1764.35 -390.998 339995.
 -1147.29 -244.501 -339998.
 -1438.14 -257.357 -339997.
 -3915.06 -746.028 339977.
 -816.366 -504.401 -339999.
 -25.9336 -434.374 -340000.
 430.572 -765.229 -339999.
 659.536 -1219.27 339997.
 538.574 -966.108 339998.
 558.164 -803.816 339999.
 -271.961 -181.120 340000.
 -587.764 -316.649 339999.
 278.512 -451.485 340000.
 554.863 -352.088 339999.
 516.690 -230.299 340000.
 549.471 69.3090 340000.
 1986.07 469.360 339994.
 490.307 -159.101 -340000.
 118.545 -303.723 -340000.
 184.730 -364.825 -340000.
 746.745 -629.005 -339999.
 563.844 -89.2274 340000.
 83.6695 12.1119 340000.
 -1.52035 -259.124 340000.
 434.672 -1020.49 339998.
 1215.15 -790.390 -339997.
 943.621 -76.3536 339999.
 -755.430 19.9259 339999.
 -558.614 -247.582 -339999.
 423.406 -330.191 -340000.
 877.995 -278.982 339999.
 101.430 -246.817 340000.
 -281.238 -156.351 340000.
 -561.347 -544.730 339999.
 -346.133 -503.575 -339999.
 71.7326 -305.358 -340000.
 268.058 -335.879 -340000.
 -559.488 -940.057 -339998.
 -620.274 -464.110 -339999.
 -204.473 -372.482 -340000.
 -60.5342 -352.146 -340000.
 -21.5089 -346.828 -340000.
 -6.11596 -354.897 -340000.
 27.6892 -381.118 -340000.
 128.613 -451.162 -340000.
 455.502 -691.172 -339999.
 1449.96 -1543.25 -339993.
 1988.98 -2267.54 -339987.
 2404.94 -4037.38 -339968.
 1380.66 -2998.00 339984.
 770.616 -1168.45 339997.
 464.213 -220.399 340000.
 194.747 142.125 340000.
 -34.4239 211.645 340000.
 -242.166 140.474 340000.
 -736.277 56.5920 339999.
 -673.713 29.7342 -339999.
 -302.257 710.877 -339999.
 -801.739 3023.13 339986.
 -479.652 2604.62 339990.
 254.358 1922.60 -339994.
 316.628 976.646 -339998.
 249.688 736.016 -339999.
 569.753 734.529 -339999.
 409.015 303.990 340000.
 150.163 107.145 340000.
 174.710 53.0812 340000.
 232.254 -2.17076 340000.
 388.313 -410.248 340000.
 21.9298 -774.093 -339999.
 -845.712 -676.733 -339998.
 -964.724 -420.621 -339998.
 -501.015 -316.008 -339999.
 -298.722 -419.617 -340000.
 -440.363 -420.661 339999.
 -10.5965 -271.375 340000.
 161.520 -436.783 -340000.
 88.0287 -287.728 -340000.
 332.743 -118.761 -340000.
 516.226 276.116 -339999.
 46.7079 471.790 -340000.
 -1523.96 567.919 -339996.
 -1922.89 504.102 -339994.
 -1104.39 331.574 339998.
 -39.7654 381.736 340000.
 -342.404 826.725 339999.
 -1605.75 2904.09 339984.
 -5553.35 12257.0 339734.
 -3289.24 9586.51 339849.
 -2694.67 12690.0 339752.
 -2046.53 17562.5 -339540.
 -450.184 4133.74 339975.
 -877.067 1096.37 339997.
 -973.575 102.261 -339999.
 -273.635 -255.679 -340000.
 270.483 -677.180 -339999.
 1984.97 -1825.22 339989.
 1015.32 -665.724 339998.
 317.446 -188.215 340000.
 -89.4290 -62.7419 340000.
 -583.319 -179.245 339999.
 -994.739 -800.702 339998.
 18.9500 -440.699 -340000.
 688.114 93.6773 -339999.
 2120.57 1548.31 339990.
 410.404 501.199 -339999.
 127.684 -380.847 -340000.
 151.650 -1063.90 339998.
 163.303 -164.545 340000.
 -17.6131 173.519 340000.
 -397.022 358.433 340000.
 -550.330 570.380 -339999.
 -100.914 498.847 -340000.
 54.1866 541.943 -340000.
 186.398 597.718 -339999.
 590.672 760.320 -339999.
 373.883 440.680 340000.
 24.1726 199.220 340000.
 -23.0248 102.590 340000.
 0.0536616 51.0782 340000.
 63.1222 21.4041 340000.
 190.527 51.6255 340000.
 461.802 146.096 340000.
 808.338 283.070 -339999.
 240.742 409.872 -340000.
 -350.639 723.991 -339999.
 -541.874 441.937 339999.
 -870.687 35.3373 339999.
 -1683.86 -799.505 339995.
 -1040.19 -1011.46 -339997.
 -438.373 -660.529 -339999.
 153.505 -465.555 -340000.
 1007.85 -700.704 -339998.
 2120.91 -1570.62 339990.
 2596.40 -3508.75 -339972.
 1391.61 -1914.68 -339992.
 862.019 -331.295 339999.
 649.764 238.136 339999.
 446.617 889.929 -339999.
 -479.281 863.432 -339999.
 -752.572 780.757 -339998.
 -618.087 777.626 -339999.
 -675.572 493.590 -339999.
 -1882.07 50.6727 -339995.
 -2906.19 -617.667 339987.
 -4086.40 -1430.87 339972.
 -777.524 -610.622 -339999.
 100.677 -459.066 -340000.
 1198.89 -655.036 339997.
 604.512 -120.316 -339999.
 64.9844 -240.212 -340000.
 381.439 -640.403 -339999.
 617.822 -1046.44 339998.
 528.516 -659.046 339999.
 726.241 -620.250 339999.
 940.766 -954.593 -339997.
 511.145 -580.605 -339999.
 393.783 -359.832 -340000.
 143.625 -111.706 -340000.
 -355.241 -57.6515 -340000.
 -424.235 -22.6953 340000.
 -650.538 6.03898 339999.
 -375.373 -24.4093 -340000.
 450.295 150.468 -340000.
 569.808 387.644 339999.
 136.694 344.628 340000.
 1.56140 313.471 340000.
 -50.0032 263.681 340000.
 -88.4121 188.400 340000.
 -146.224 73.9163 340000.
 -317.288 -82.4764 340000.
 -787.553 -441.532 339999.
 -275.620 -321.424 -340000.
 -1357.30 11.6297 339997.
 -921.608 -292.357 -339999.
 -168.925 -414.726 -340000.
 466.635 -534.902 -339999.
 1668.31 -755.974 -339995.
 1139.23 -350.466 339998.
 394.032 -199.733 340000.
 197.056 -166.652 340000.
 126.853 -89.6563 340000.
 35.1856 4.27383 340000.
 -112.301 5.22718 340000.
 -411.359 -180.216 340000.
 -1083.72 -787.798 339997.
 -308.198 -578.276 -339999.
 627.258 -661.108 -339999.
 812.003 -486.329 339999.
 720.610 -276.486 339999.
 2258.38 -115.763 -339992.
 823.475 229.053 -339999.
 21.3681 324.817 -340000.
 15.2389 91.4929 -340000.
 631.385 -75.3793 -339999.
 1539.32 -583.711 -339996.
 796.981 -1338.56 -339996.
 -618.008 -1219.01 339997.
 -1672.31 -1699.22 339992.
 -3140.95 -1998.21 -339980.
 -1355.70 -516.459 -339997.
 -951.274 382.107 -339998.
 -2165.87 953.106 -339992.
 -4471.67 1243.63 339968.
 -950.343 169.455 -339999.
 -80.9345 -153.800 -340000.
 353.606 -741.128 -339999.
 1527.22 -2930.50 339984.
 2402.13 -3315.37 339975.
 2547.82 -2234.14 -339983.
 185.061 -199.703 340000.
 -639.375 412.171 339999.
 -34.7237 414.217 340000.
 771.649 249.279 339999.
 1245.38 -18.7075 339998.
 1123.97 -89.0780 339998.
 1733.63 306.735 339995.
 288.298 13.6177 -340000.
 84.2403 -74.9980 -340000.
 161.581 -128.513 -340000.
 220.625 -469.792 340000.
 225.539 -241.656 340000.
 -83.0894 -431.795 340000.
 -9.20839 -1060.30 339998.
 1350.09 -2948.65 339985.
 1182.77 -911.931 -339997.
 888.101 -655.442 -339998.
 -1195.84 -763.314 -339997.
 -704.298 -399.269 -339999.
 220.790 -492.732 -340000.
 661.205 -1272.66 -339997.
 -10.4323 -2135.69 -339993.
 -607.787 -863.093 339998.
 -745.836 -952.813 339998.
 -41.3147 -282.434 -340000.
 362.595 82.5677 -340000.
 504.662 25.3423 -340000.
 -1155.58 -937.819 339997.
 -1512.55 -611.706 -339996.
 -322.272 -171.952 -340000.
 -72.8247 -74.2711 -340000.
 -31.6227 -21.7643 -340000.
 -17.2280 -17.8273 -340000.
 74.0098 -74.6914 -340000.
 374.780 -309.696 -340000.
 1523.21 -1155.59 -339995.
 4296.24 -3481.69 339955.
 2875.07 -3184.83 339973.
 1102.54 -2603.80 -339988.
 1334.07 -3121.47 -339983.
 2964.36 -3952.44 339964.
 1386.13 -1101.95 339995.
 615.816 -274.395 339999.
 -116.197 -148.657 340000.
 -479.420 -405.213 339999.
 -944.798 -498.925 339998.
 -532.577 97.4824 -340000.
 74.0853 1324.27 -339997.
 -553.579 4960.78 339963.
 -578.226 3737.61 339979.
 286.470 3519.38 339982.
 388.850 1608.70 339996.
 103.138 941.460 339999.
 -3.31724 463.483 340000.
 0.110700 -319.315 340000.
 214.552 -717.837 339999.
 648.609 -985.953 339998.
 837.160 -1185.83 339997.
 1444.04 -3308.19 339981.
 352.299 -3571.55 -339981.
 -1354.37 -4042.44 -339973.
 -2349.89 -2576.26 -339982.
 -957.449 -595.086 -339998.
 -321.730 -424.636 -340000.
 -354.435 -496.842 339999.
 -45.3160 -196.228 340000.
 141.268 -864.583 339999.
 87.7832 -387.571 -340000.
 570.966 -82.3176 -340000.
 774.944 110.102 -339999.
 139.220 -233.780 -340000.
 -669.264 -242.694 339999.
 -585.376 204.310 339999.
 -189.210 308.253 340000.
 -39.2886 338.439 340000.
 -557.365 1121.72 339998.
 -3083.55 6336.38 339927.
 -11140.2 27789.1 -338679.
 -8173.64 24541.0 339015.
 -3740.70 13951.2 339693.
 -1426.28 7929.49 339905.
 -519.596 2056.44 339993.
 -1122.45 825.862 339997.
 -1785.01 638.459 -339995.
 -742.850 313.599 -339999.
 -57.0052 -25.9232 -340000.
 569.339 -459.498 -339999.
 1001.69 -910.276 -339997.
 643.791 -1066.91 339998.
 -80.8785 -804.223 339999.
 -716.811 -686.677 339999.
 -1238.08 -902.656 339997.
 200.069 -161.656 -340000.
 1023.58 347.698 -339998.
 1491.99 1190.36 339995.
 -141.881 689.202 -339999.
 -615.714 -672.305 -339999.
 -566.164 -3778.22 339979.
 196.450 -950.877 339999.
 19.4775 -231.114 340000.
 -163.212 -9.80228 340000.
 -185.329 280.690 340000.
 21.8687 460.296 340000.
 117.159 607.772 339999.
 143.086 677.951 339999.
 182.266 583.427 339999.
 -30.5475 121.202 340000.
 -300.092 -359.359 340000.
 -161.488 -616.804 339999.
 -23.9035 -772.071 339999.
 196.409 -931.686 339999.
 568.289 -842.655 339998.
 867.405 -821.302 339998.
 1339.42 -1144.81 -339995.
 775.555 -621.938 -339999.
 -169.284 -133.508 -340000.
 -494.945 85.5474 340000.
 -898.930 53.3478 339999.
 -1383.69 -58.8892 339997.
 -1375.49 -122.461 339997.
 -1814.07 -27.9980 339995.
 -95.7703 -226.631 -340000.
 813.036 -597.803 -339999.
 1601.43 -1681.33 339992.
 1318.88 -2295.58 339990.
 1023.06 -1705.85 339994.
 844.173 -845.575 339998.
 1366.11 -655.279 339997.
 923.150 37.8383 -339999.
 -292.985 536.164 -339999.
 -1735.75 1905.24 -339990.
 -1120.43 1350.00 339995.
 -1275.54 845.046 339997.
 -1195.98 90.4725 -339998.
 -1098.09 -230.817 -339998.
 -1019.48 -250.771 -339998.
 -188.872 -57.6672 -340000.
 287.231 156.589 -340000.
 909.046 553.333 339998.
 387.439 536.366 339999.
 -276.996 54.8247 -340000.
 152.781 -557.012 -340000.
 1103.06 -2321.66 339990.
 1278.31 -1445.99 339995.
 1347.32 -1346.97 339995.
 635.102 -1079.36 -339998.
 357.224 -666.699 -339999.
 436.076 -615.921 -339999.
 240.057 -952.671 -339999.
 -387.204 -1337.17 -339997.
 -529.249 -1209.59 339997.
 -629.416 -639.702 339999.
 -161.357 150.914 -340000.
 509.310 643.922 -339999.
 522.298 416.877 339999.
 93.7616 157.904 340000.
 -61.6338 39.3146 340000.
 -131.427 -99.0789 340000.
 -210.186 -298.246 340000.
 -317.341 -670.564 339999.
 -599.272 -860.226 339998.
 -636.814 -595.551 -339999.
 -10.7900 -100.529 -340000.
 -845.945 202.018 339999.
 -1517.39 -84.8067 339997.
 -530.858 -428.649 339999.
 574.712 -722.908 339999.
 1827.63 -937.192 339994.
 1049.67 -551.680 339998.
 738.233 -834.768 339998.
 596.421 -953.138 339998.
 512.714 -679.139 339999.
 198.982 -225.769 340000.
 -167.619 -144.166 340000.
 -875.802 -431.929 339999.
 -1413.05 -1071.67 -339995.
 -268.242 -521.434 -339999.
 592.617 -669.618 -339999.
 1187.01 -1189.96 339996.
 1086.36 -835.825 339997.
 3560.71 -580.932 339981.
 1784.49 385.326 -339995.
 73.1903 445.154 -340000.
 -179.171 97.1951 -340000.
 809.435 -345.787 -339999.
 2026.05 -1906.88 339989.
 147.571 -1982.49 339994.
 -963.738 -2541.82 339989.
 -2357.70 -4017.06 -339968.
 -1007.94 -1072.63 -339997.
 -301.224 -61.5065 -340000.
 -512.525 871.700 339998.
 -1731.77 1191.04 339994.
 -4491.58 2606.01 339960.
 -1048.65 761.766 -339998.
 -182.409 131.690 -340000.
 74.2641 -132.636 -340000.
 496.284 -556.571 -339999.
 1073.20 -547.443 -339998.
 1838.25 -158.031 -339995.
 521.016 322.298 339999.
 -360.806 784.182 339999.
 -422.420 2062.27 339993.
 373.612 2687.71 -339989.
 1774.16 1645.07 339991.
 2367.93 396.557 339992.
 1139.06 -54.3185 -339998.
 141.731 12.4276 -340000.
 37.8652 52.5987 -340000.
 71.4760 35.5063 -340000.
 -485.250 -218.679 340000.
 -478.448 -596.672 339999.
 -460.824 -958.988 339998.
 -149.247 -1998.11 339994.
 625.320 -1781.08 -339995.
 733.397 -703.550 -339998.
 247.023 -1342.44 -339997.
 -2090.34 -2480.36 -339985.
 -1395.81 -1348.59 -339994.
 -279.356 -1074.23 -339998.
 189.488 -891.985 -339999.
 163.230 -1169.09 -339998.
 -462.821 -1044.39 339998.
 -458.960 -672.807 339999.
 699.513 233.113 -339999.
 1653.82 970.773 -339995.
 787.028 626.633 339999.
 -661.707 -69.0486 339999.
 -2226.90 -327.648 339993.
 -403.237 148.953 -340000.
 -45.2170 341.267 -340000.
 -58.8102 690.269 -339999.
 -54.9077 832.357 -339999.
 170.633 962.219 339999.
 589.099 417.373 339999.
 1406.36 -96.7687 339997.
 1892.00 -889.893 339994.
 947.981 -1175.60 339997.
 -39.4795 -1573.57 -339996.
 489.357 -1325.78 -339997.
 1832.46 -1963.66 -339989.
 1589.84 -899.315 -339995.
 1369.46 -468.910 -339997.
 -297.403 -336.166 -340000.
 -655.643 -470.295 -339999.
 -406.946 -450.183 -339999.
 -19.6980 61.6733 -340000.
 576.402 1074.58 -339998.
 1067.57 6022.43 -339945.
 132.238 4174.38 339974.
 123.906 2335.22 339992.
 0.338470 1249.32 339998.
 -176.017 417.330 340000.
 -612.540 16.7885 339999.
 -630.625 -743.241 -339999.
 331.560 -1100.84 -339998.
 2097.69 -2572.33 -339984.
 3760.29 -5263.47 339938.
 4395.13 -10181.6 -339819.
 1141.00 -7833.39 -339908.
 -1987.97 -11790.9 339790.
 -3015.49 -5845.64 339936.
 -1528.18 -1506.53 -339993.
 -589.741 -740.496 -339999.
 -560.653 -1328.06 339997.
 -157.195 -656.776 339999.
 -43.6866 -1371.00 339997.
 164.895 -558.571 -340000.
 549.048 -345.572 -339999.
 637.426 -810.724 -339998.
 57.2376 -1554.09 -339996.
 -214.299 -1612.22 339996.
 32.4099 -645.613 339999.
 131.231 -124.201 340000.
 -58.5855 214.544 340000.
 -710.684 1376.28 339996.
 -3510.45 7853.17 339891.
 -9734.18 27036.3 -338784.
 -14479.8 43609.0 336881.
 -6294.53 18801.8 339421.
 -2686.25 7781.44 339900.
 -1170.31 2685.70 339987.
 -1013.04 1133.67 339997.
 -2143.13 1836.26 339988.
 -2040.58 2183.59 339987.
 -554.120 1043.98 -339998.
 19.0676 417.572 -340000.
 206.902 -167.444 -340000.
 191.088 -672.914 -339999.
 -59.6414 -785.758 -339999.
 -235.002 -654.642 -339999.
 1.06430 -331.904 -340000.
 937.848 69.4531 -339999.
 1737.40 556.792 -339995.
 1187.69 600.349 339997.
 -879.914 186.624 -339999.
 -1211.52 -828.561 -339997.
 -1567.55 -4760.99 -339963.
 -156.062 -2946.84 339987.
 -144.126 -873.403 339999.
 -242.252 -608.949 339999.
 -41.4904 -556.337 340000.
 218.898 -382.047 340000.
 275.709 -73.0470 340000.
 154.679 97.1685 340000.
 -6.45229 126.428 340000.
 -494.095 17.6369 340000.
 -1370.10 -394.170 -339997.
 -476.923 -584.207 -339999.
 -86.7386 -866.794 -339999.
 559.670 -1679.72 -339995.
 2548.53 -2857.80 339978.
 2094.65 -1976.61 339988.
 1985.16 -1782.31 -339990.
 1417.04 -1026.41 339995.
 207.447 -300.937 340000.
 -239.985 -12.3196 340000.
 -730.853 202.468 339999.
 -1209.11 675.109 339997.
 -1423.90 932.016 339996.
 -3519.92 1618.21 339978.
 -668.853 249.883 -339999.
 200.779 -233.714 -340000.
 634.336 -829.996 -339998.
 608.300 -1011.77 -339998.
 631.697 -875.811 -339998.
 1020.84 -661.232 -339998.
 2073.32 -663.543 -339993.
 1428.75 -406.624 -339997.
 138.224 -108.551 -340000.
 -663.612 348.803 339999.
 -431.636 221.664 340000.
 -795.361 417.096 339999.
 -1046.05 930.911 -339997.
 -472.270 596.344 -339999.
 -343.202 258.022 -340000.
 10.5259 192.792 -340000.
 548.641 406.264 -339999.
 585.462 642.656 339999.
 -267.740 484.669 340000.
 -662.868 300.099 -339999.
 -128.306 -45.4151 -340000.
 540.243 -837.017 -339999.
 1909.85 -1802.59 339990.
 2316.15 -2106.11 339986.
 699.807 -647.027 -339999.
 448.148 -130.409 -340000.
 466.884 7.60281 -340000.
 166.464 -363.780 -340000.
 -226.280 -698.741 -339999.
 -127.830 -1002.75 -339998.
 260.981 -285.899 -340000.
 497.940 446.137 -339999.
 634.032 1110.13 -339998.
 238.580 417.899 340000.
 -43.9865 55.6738 340000.
 -258.028 -174.583 340000.
 -366.298 -561.988 339999.
 -469.093 -1033.45 339998.
 -383.564 -1148.98 -339998.
 -0.459778 -481.192 -340000.
 49.6144 219.995 -340000.
 155.894 473.191 -340000.
 -645.192 191.639 339999.
 -1333.50 322.905 339997.
 -669.628 52.6351 339999.
 215.108 -247.908 340000.
 1230.31 -554.075 339997.
 1390.36 -809.590 339996.
 3071.90 -2374.57 339978.
 1644.73 -1477.65 -339993.
 1500.91 -811.665 -339996.
 647.833 -271.629 339999.
 -176.701 -189.158 340000.
 -1093.88 -487.090 339998.
 -1683.94 -1043.09 -339994.
 -469.719 -734.013 -339999.
 204.534 -540.368 -340000.
 601.619 -916.784 -339998.
 807.839 -907.001 -339998.
 1654.53 -735.416 -339995.
 1240.31 -438.677 -339997.
 -169.057 -258.284 -340000.
 -399.966 -67.2481 -340000.
 240.409 -306.861 -340000.
 393.480 -1727.19 -339995.
 -851.134 -2249.17 -339991.
 -775.706 -1723.28 -339995.
 -438.366 -1571.01 -339996.
 -71.6067 -244.144 -340000.
 311.617 487.899 -340000.
 -26.3247 571.026 340000.
 -1231.18 968.832 339996.
 -2564.95 2424.99 -339982.
 -1054.63 1557.26 -339995.
 -356.221 450.519 -340000.
 -49.5187 90.1318 -340000.
 254.689 -43.0588 -340000.
 1047.61 -30.9219 -339998.
 1844.97 161.492 339995.
 539.248 174.096 340000.
 -44.1297 444.273 340000.
 -452.952 1362.13 339997.
 -514.850 2243.30 -339992.
 94.5643 1219.48 -339998.
 452.076 586.992 -339999.
 233.795 317.600 -340000.
 4.52054 324.971 -340000.
 -133.810 322.917 -340000.
 -537.221 211.439 -340000.
 -2054.76 -456.564 339993.
 -1970.56 -822.537 339993.
 -954.229 -922.649 339997.
 -321.302 -1249.94 339998.
 349.757 -1212.43 -339998.
 454.369 -914.524 -339998.
 -451.883 -3176.44 -339985.
 -3775.90 -5934.88 339927.
 -2552.49 -3325.13 339974.
 -1089.16 -2684.13 339988.
 207.229 -874.395 -339999.
 481.912 -239.722 -340000.
 389.723 -176.042 -340000.
 852.484 226.266 -339999.
 2502.03 963.091 -339989.
 3440.78 1689.75 339978.
 645.846 499.845 339999.
 -471.062 130.948 340000.
 -920.055 480.742 339998.
 140.302 1211.75 -339998.
 220.231 1866.95 -339995.
 -78.4658 3165.09 339985.
 -46.6742 2044.52 339994.
 122.916 1365.32 339997.
 437.517 1250.95 339997.
 912.323 957.883 339997.
 663.166 318.061 339999.
 -218.340 -73.5486 340000.
 -900.034 -522.685 339998.
 252.057 -818.513 339999.
 2133.67 -1648.66 339989.
 1415.85 -708.871 -339996.
 1067.00 -635.900 -339998.
 -146.987 -540.461 -340000.
 -385.400 -249.078 -340000.
 -60.8018 -45.1890 -340000.
 243.032 181.624 -340000.
 803.348 522.796 -339999.
 1128.02 1695.11 -339994.
 503.554 2085.54 -339993.
 -76.0296 1702.33 -339996.
 -836.531 1734.01 -339995.
 -554.482 403.496 339999.
 -921.839 44.9708 339999.
 -756.152 -219.015 -339999.
 247.458 -493.107 -340000.
 2249.17 -2118.00 -339986.
 7312.00 -8742.80 339809.
 3092.28 -5938.05 -339934.
 916.255 -5074.26 -339961.
 -1919.93 -14098.7 -339702.
 -4541.21 -10798.4 339798.
 -1743.71 -2271.03 -339988.
 -682.784 -795.376 -339998.
 -683.433 -1591.48 339996.
 -349.818 -765.992 339999.
 -408.643 -1023.44 339998.
 74.3697 -421.537 -340000.
 247.288 -329.241 -340000.
 242.283 -652.344 -339999.
 72.9423 -953.064 -339999.
 164.672 -1723.27 -339996.
 756.200 -1352.33 339996.
 482.398 -281.933 340000.
 -69.8467 226.261 340000.
 -1115.17 2012.09 339992.
 -5531.96 12634.7 339720.
 -10434.5 29524.3 -338555.
 -35453.3 102295. -322302.
 -13033.9 35279.8 -337913.
 -6850.98 17013.0 -339505.
 -4419.46 10842.6 339798.
 -1133.19 2976.97 339985.
 -897.106 1648.35 339995.
 -948.872 1836.37 339994.
 -499.313 2105.98 339993.
 -397.694 2450.23 339991.
 -173.512 550.078 -340000.
 -51.0636 -13.2815 -340000.
 -62.3528 -130.285 -340000.
 79.4146 -142.237 -340000.
 950.315 -63.5425 -339999.
 3000.85 191.691 339987.
 1517.16 313.392 339996.
 470.812 122.353 340000.
 -440.765 -88.1611 340000.
 -1458.51 -853.039 339996.
 -3185.36 -4857.16 339950.
 -1291.06 -4886.36 -339962.
 -918.644 -1976.14 339993.
 -941.339 -1089.73 339997.
 -78.9818 -1020.01 339998.
 810.496 -791.199 339998.
 805.419 -397.812 339999.
 385.458 -139.562 340000.
 67.4338 -1.39899 340000.
 -292.200 98.1562 340000.
 -1136.45 308.946 339998.
 -731.989 184.306 -339999.
 -324.966 80.6692 -340000.
 -112.134 -297.100 -340000.
 567.653 -743.662 -339999.
 829.641 -874.596 -339998.
 1225.82 -738.819 -339997.
 1121.90 -519.374 339998.
 240.787 -206.597 340000.
 -89.5507 -61.7870 340000.
 -360.507 146.427 340000.
 -677.972 557.531 339999.
 -1859.01 1119.09 339993.
 -5536.05 2399.04 -339946.
 -1512.41 680.520 -339996.
 -124.340 176.037 -340000.
 598.711 -18.7137 -339999.
 707.238 134.276 -339999.
 768.750 206.731 -339999.
 1582.92 205.439 -339996.
 1833.51 12.3662 339995.
 758.680 -143.959 339999.
 43.1338 -202.512 340000.
 -314.940 -229.512 340000.
 -283.147 -430.364 340000.
 -151.191 15.4391 340000.
 -273.552 1025.58 339998.
 -387.586 1565.85 -339996.
 -380.113 598.950 -339999.
 36.9429 441.109 -340000.
 648.085 581.334 -339999.
 547.600 501.084 339999.
 -429.210 526.442 339999.
 -1055.19 907.644 -339997.
 -371.418 410.165 -340000.
 -30.3379 151.541 -340000.
 319.619 -91.2216 -340000.
 540.963 -242.326 -339999.
 491.879 -3.07374 -340000.
 975.166 257.850 -339999.
 1458.89 442.626 -339997.
 302.147 367.500 340000.
 -183.421 121.737 340000.
 422.050 103.504 340000.
 1379.51 533.747 -339997.
 1279.93 517.693 -339997.
 780.642 542.565 -339999.
 79.9147 160.950 340000.
 -196.300 -24.5612 340000.
 -653.974 -219.319 339999.
 -1182.37 -888.695 339997.
 -766.703 -1749.28 339995.
 119.474 -516.905 -340000.
 975.154 219.481 -339999.
 729.166 656.808 339999.
 71.4555 579.078 339999.
 -326.993 79.7335 340000.
 -967.926 305.143 339998.
 -1030.37 280.627 339998.
 -76.8275 73.9581 340000.
 788.694 -159.197 339999.
 1824.15 -479.697 339995.
 1826.65 -544.922 -339995.
 986.307 13.2590 -339999.
 1664.59 581.444 -339995.
 631.822 152.714 339999.
 -316.735 -159.523 340000.
 -1024.16 -532.200 339998.
 -1665.53 -1162.04 339994.
 -882.280 -1535.80 339995.
 231.700 -806.904 -339999.
 637.933 -523.947 -339999.
 642.922 -353.214 -339999.
 977.115 -463.824 -339998.
 1076.65 -1051.05 -339997.
 -4.22289 -920.227 -339999.
 -475.854 39.7212 -340000.
 -486.409 265.993 -340000.
 -651.197 -266.843 -339999.
 -829.568 -762.202 -339998.
 -417.890 -965.933 -339998.
 721.148 -1270.53 339997.
 596.943 18.5041 339999.
 301.097 439.792 340000.
 -49.1536 367.453 340000.
 -975.567 1109.53 339997.
 -2766.62 4478.89 -339959.
 -2397.48 4264.68 339965.
 -952.638 1097.28 -339997.
 -217.689 234.683 -340000.
 173.969 10.3420 -340000.
 1097.52 -249.649 -339998.
 2302.60 -711.259 339991.
 1256.38 -399.445 339997.
 632.140 -128.229 339999.
 -77.0047 488.897 340000.
 -583.639 1770.00 339995.
 -341.815 1943.50 -339994.
 156.856 949.230 -339999.
 152.523 977.595 -339999.
 -207.909 1140.18 -339998.
 -624.136 1266.79 -339997.
 -1573.42 1520.89 -339993.
 -2964.07 733.859 339986.
 -1798.11 452.834 339995.
 -979.435 293.303 339998.
 -381.298 -24.2005 340000.
 69.4997 -710.060 339999.
 237.982 -821.391 -339999.
 -160.291 -1240.26 -339998.
 -1603.00 -2906.69 -339984.
 -2106.39 -3054.19 339980.
 -264.619 -975.520 339998.
 755.536 488.585 339999.
 1707.13 1664.11 339992.
 1632.23 1349.95 -339993.
 3052.23 1419.52 -339983.
 8542.66 3279.02 -339877.
 8070.28 3435.85 339887.
 1910.97 1409.50 339992.
 -33.5613 1205.98 339998.
 246.721 1471.64 339997.
 1123.28 2276.91 339991.
 589.651 1497.48 339996.
 122.203 1103.38 339998.
 146.755 942.976 339999.
 282.590 989.280 339998.
 586.953 1477.87 339996.
 546.083 1286.21 339997.
 84.5694 499.412 340000.
 -639.070 349.164 339999.
 -1369.47 712.592 339996.
 -243.491 307.161 340000.
 1143.31 -310.148 339998.
 657.987 -343.110 -339999.
 351.721 -505.695 -339999.
 14.2124 -477.498 -340000.
 33.6798 -124.875 -340000.
 278.485 311.583 -340000.
 508.655 610.577 -339999.
 1085.00 620.445 -339998.
 1563.74 646.596 -339996.
 526.178 274.998 -339999.
 -143.757 92.9694 -340000.
 -1058.39 356.280 -339998.
 -623.902 97.4368 339999.
 -982.344 63.2119 339999.
 -856.330 40.5675 -339999.
 132.355 -195.944 -340000.
 1713.00 -1312.06 -339993.
 7251.07 -7631.92 -339837.
 3256.69 -5508.41 -339940.
 768.462 -4646.22 -339967.
 -670.609 -5937.19 -339947.
 -2247.47 -6164.35 -339937.
 -948.950 -1312.89 -339996.
 -371.893 -354.893 -340000.
 -493.701 -701.330 -339999.
 -892.527 -1227.98 339997.
 -609.046 -963.900 339998.
 -20.4137 -247.747 -340000.
 81.1823 -149.353 -340000.
 94.9635 -240.033 -340000.
 114.860 -343.734 -340000.
 473.217 -612.244 -339999.
 2134.53 -980.714 339992.
 765.283 -175.272 339999.
 -138.116 277.535 340000.
 -1731.86 2522.63 339986.
 -5209.41 11397.5 -339769.
 -9334.05 26370.2 -338847.
 -37216.2 105109. 321196.
 -23916.8 64241.7 -333018.
 -7846.65 20092.9 -339315.
 -6985.18 18540.9 339422.
 -2068.03 7642.31 339908.
 -337.154 2697.19 339989.
 -242.485 1195.16 339998.
 -198.950 1015.26 339998.
 -506.920 1209.94 339997.
 -568.974 718.695 -339999.
 -217.977 350.282 -340000.
 -219.485 406.038 -340000.
 109.026 645.711 339999.
 1026.65 433.858 339998.
 1576.38 388.749 339996.
 871.605 85.7165 339999.
 432.235 -209.415 340000.
 -182.630 -248.295 340000.
 -1058.15 -415.862 339998.
 -2230.52 -1647.97 339989.
 -628.980 -1264.73 -339997.
 -351.289 -782.948 -339999.
 -303.785 -388.224 -340000.
 100.855 -295.795 -340000.
 1064.07 -452.532 -339998.
 2704.39 -556.808 339989.
 904.758 -181.213 339999.
 250.143 -68.0754 340000.
 -74.0717 28.5135 340000.
 -644.541 279.900 339999.
 -981.859 847.143 -339998.
 -647.236 576.283 339999.
 -1039.71 568.571 339998.
 -183.843 -6.53321 -340000.
 277.839 -212.716 -340000.
 1039.35 -393.546 -339998.
 1512.03 -760.000 339996.
 318.528 -419.734 340000.
 -5.86887 -293.556 340000.
 -181.001 -182.616 340000.
 -483.367 8.91793 340000.
 -1611.42 437.932 339996.
 -6110.88 2323.50 339937.
 -3553.84 1938.50 339976.
 -565.529 1329.81 339997.
 1488.90 662.257 339996.
 1284.79 420.478 339997.
 1158.66 158.249 339998.
 1308.43 -114.664 339997.
 1050.59 -251.045 339998.
 422.005 -90.2916 340000.
 -214.065 -157.927 340000.
 -937.545 -700.219 339998.
 -510.936 -1239.85 -339997.
 377.385 -738.962 339999.
 592.234 178.632 339999.
 442.758 2091.58 -339993.
 -124.940 1211.54 -339998.
 68.3970 1201.92 -339998.
 642.755 1465.45 -339996.
 457.514 607.123 339999.
 -192.445 419.153 340000.
 -942.577 1090.05 339997.
 -789.523 1224.00 -339997.
 -297.149 867.487 -339999.
 -201.328 467.212 -340000.
 20.0167 159.215 -340000.
 688.382 80.3847 -339999.
 1296.87 68.8164 339998.
 656.136 -84.8770 339999.
 137.855 -107.366 340000.
 -23.7861 -55.0020 340000.
 235.293 141.937 340000.
 1278.34 329.759 339997.
 2175.40 11.1089 -339993.
 1193.78 -193.677 -339998.
 65.5654 -113.033 340000.
 -282.493 -99.0071 340000.
 -1017.39 -164.387 339998.
 -1419.36 -326.504 -339997.
 -332.394 -374.597 -340000.
 546.780 -171.327 -340000.
 1821.00 -64.1264 339995.
 807.140 -34.2774 339999.
 74.9503 78.9863 340000.
 -405.022 -406.827 340000.
 -1074.14 -146.702 339998.
 -1403.63 395.530 339997.
 -149.413 537.610 340000.
 731.289 635.458 339999.
 1847.71 1120.61 339993.
 1462.35 986.042 -339995.
 1581.09 1356.33 -339994.
 1769.03 1884.13 339990.
 194.875 548.136 340000.
 -784.111 79.8657 339999.
 -1561.09 -185.982 339996.
 -1003.85 -270.790 339998.
 -247.607 -242.220 340000.
 698.185 -150.416 339999.
 2060.52 -265.011 339994.
 1815.01 -105.622 -339995.
 1192.06 -137.043 -339998.
 672.643 -475.621 -339999.
 563.898 -451.641 -339999.
 -12.1601 765.752 339999.
 -1808.99 1450.44 339992.
 -4108.35 2546.57 -339966.
 -2472.33 1892.71 339986.
 -443.451 774.452 339999.
 437.864 186.313 340000.
 472.878 84.5271 340000.
 176.246 34.9353 340000.
 5.24710 41.0099 340000.
 -242.968 340.387 340000.
 -684.331 1302.66 339997.
 -1001.26 1378.82 339996.
 -1022.06 981.571 -339997.
 -456.851 343.896 -340000.
 -7.28206 129.430 -340000.
 1026.97 -335.986 -339998.
 3162.14 -1304.78 -339983.
 3219.26 -1583.51 -339981.
 2918.57 -1816.13 -339983.
 579.062 -188.505 339999.
 -31.9590 545.100 340000.
 72.3586 1845.65 339995.
 790.783 1991.65 -339993.
 352.503 2035.90 -339994.
 -1210.47 3020.20 -339984.
 -2728.44 4037.40 -339965.
 -1618.70 2115.76 339990.
 -924.746 887.461 339998.
 -953.261 908.573 339997.
 -1147.90 1442.49 339995.
 -804.369 1205.90 339997.
 -578.023 614.122 339999.
 -490.998 499.954 339999.
 -100.217 -212.377 -340000.
 -228.461 -469.039 -340000.
 -203.762 -499.879 -340000.
 663.030 14.8185 -339999.
 784.617 510.438 339999.
 671.130 683.439 339999.
 1862.58 1268.25 339993.
 7855.45 3480.40 339891.
 21283.5 8477.06 339227.
 20189.4 8496.09 -339294.
 5619.87 3276.94 -339938.
 638.395 1200.20 -339997.
 987.342 1522.10 -339995.
 1384.63 2149.71 339990.
 437.202 900.480 339999.
 240.079 249.396 340000.
 672.826 177.304 339999.
 1040.74 474.797 339998.
 1985.79 1620.71 -339990.
 1203.63 1579.47 -339994.
 3.39624 568.801 340000.
 -751.936 757.899 339998.
 -1357.27 1745.80 -339993.
 -542.874 851.356 -339999.
 -31.4571 367.806 -340000.
 46.0556 48.5500 -340000.
 63.2874 -111.841 -340000.
 98.8473 -144.913 -340000.
 445.635 -110.119 -340000.
 818.397 9.34372 339999.
 659.984 447.831 339999.
 739.322 439.035 339999.
 1012.87 -17.9435 339998.
 703.146 -1156.89 -339997.
 -179.240 -1736.46 -339996.
 -441.072 -737.454 339999.
 -306.972 -129.165 340000.
 -811.410 150.213 339999.
 -1119.39 512.509 -339998.
 -79.0149 106.767 -340000.